    2    2    1    1
  0.1968300E+02  0.3818377E-09  0.3818377E-09  0.3818377E-09  0.5000000E-15
  1.000000000000000E-004
  CAR 
 unknown system                          
      8     29      8
