 vasp.5.4.4.18Apr17-6-g9f103f2a35 (build Aug 13 2023 15:55:50) complex          
  
 executed on             LinuxIFC date 2023.12.05  00:28:25
 running on    1 total cores
 distrk:  each k-point on    1 cores,    1 groups
 distr:  one band on NCORES_PER_BAND=   1 cores,    1 groups


--------------------------------------------------------------------------------------------------------


 INCAR:
 POTCAR:    PAW_PBE Si 05Jan2001                  
 POTCAR:    PAW_PBE Si 05Jan2001                  
   VRHFIN =Si: s2p2                                                             
   LEXCH  = PE                                                                  
   EATOM  =   103.0669 eV,    7.5752 Ry                                         
                                                                                
   TITEL  = PAW_PBE Si 05Jan2001                                                
   LULTRA =        F    use ultrasoft PP ?                                      
   IUNSCR =        1    unscreen: 0-lin 1-nonlin 2-no                           
   RPACOR =    1.500    partial core radius                                     
   POMASS =   28.085; ZVAL   =    4.000    mass and valenz                      
   RCORE  =    1.900    outmost cutoff radius                                   
   RWIGS  =    2.480; RWIGS  =    1.312    wigner-seitz radius (au A)           
   ENMAX  =  245.345; ENMIN  =  184.009 eV                                      
   ICORE  =        2    local potential                                         
   LCOR   =        T    correct aug charges                                     
   LPAW   =        T    paw PP                                                  
   EAUG   =  322.069                                                            
   DEXC   =    0.000                                                            
   RMAX   =    1.950    core radius for proj-oper                               
   RAUG   =    1.300    factor for augmentation sphere                          
   RDEP   =    1.993    radius for radial grids                                 
   RDEPT  =    1.837    core radius for aug-charge                              
                                                                                
   Atomic configuration                                                         
    6 entries                                                                   
     n  l   j            E        occ.                                          
     1  0  0.50     -1785.8828   2.0000                                         
     2  0  0.50      -139.4969   2.0000                                         
     2  1  1.50       -95.5546   6.0000                                         
     3  0  0.50       -10.8127   2.0000                                         
     3  1  0.50        -4.0811   2.0000                                         
     3  2  1.50        -4.0817   0.0000                                         
   Description                                                                  
     l       E           TYP  RCUT    TYP  RCUT                                 
     0    -10.8127223     23  1.900                                             
     0     -7.6451159     23  1.900                                             
     1     -4.0811372     23  1.900                                             
     1      2.4879257     23  1.900                                             
     2     -4.0817478      7  1.900                                             
  local pseudopotential read in
  partial core-charges read in
  partial kinetic energy density read in
  atomic valenz-charges read in
  non local Contribution for L=           0  read in
    real space projection operators read in
  non local Contribution for L=           0  read in
    real space projection operators read in
  non local Contribution for L=           1  read in
    real space projection operators read in
  non local Contribution for L=           1  read in
    real space projection operators read in
    PAW grid and wavefunctions read in
 
   number of l-projection  operators is LMAX  =           4
   number of lm-projection operators is LMMAX =           8
 

 ----------------------------------------------------------------------------- 
|                                                                             |
|  ADVICE TO THIS USER RUNNING 'VASP/VAMP'   (HEAR YOUR MASTER'S VOICE ...):  |
|                                                                             |
|      You have a (more or less) 'small supercell' and for smaller cells      |
|      it is recommended  to use the reciprocal-space projection scheme!      |
|      The real space optimization is not  efficient for small cells and it   |
|      is also less accurate ...                                              |
|      Therefore set LREAL=.FALSE. in the  INCAR file                         |
|                                                                             |
 ----------------------------------------------------------------------------- 

 Optimization of the real space projectors (new method)

 maximal supplied QI-value         = 19.84
 optimisation between [QCUT,QGAM] = [ 10.71, 21.63] = [ 32.15,130.99] Ry 
 Optimized for a Real-space Cutoff    1.19 Angstroem

   l    n(q)    QCUT    max X(q) W(low)/X(q) W(high)/X(q)  e(spline) 
   0      8    10.715   159.560    0.34E-03    0.54E-04    0.49E-07
   0      8    10.715   115.863    0.34E-03    0.53E-04    0.48E-07
   1      7    10.715    88.339    0.14E-03    0.46E-03    0.63E-07
   1      7    10.715    48.592    0.13E-03    0.44E-03    0.61E-07
  PAW_PBE Si 05Jan2001                  :
 energy of atom  1       EATOM= -103.0669
 kinetic energy error for atom=    0.0009 (will be added to EATOM!!)
 
 
 POSCAR: Si                                      
  positions in direct lattice
  No initial velocities read in
 exchange correlation table for  LEXCH =        8
   RHO(1)=    0.500       N(1)  =     2000
   RHO(2)=  100.500       N(2)  =     4000
 


--------------------------------------------------------------------------------------------------------


 ion  position               nearest neighbor table
   1  0.875  0.875  0.875-   2 2.34   2 2.34   2 2.34   2 2.34
   2  0.125  0.125  0.125-   1 2.34   1 2.34   1 2.34   1 2.34
 
  LATTYP: Found a face centered cubic cell.
 ALAT       =     5.4000000000
  
  Lattice vectors:
  
 A1 = (   0.0000000000,   2.7000000000,   2.7000000000)
 A2 = (   2.7000000000,   0.0000000000,   2.7000000000)
 A3 = (   2.7000000000,   2.7000000000,   0.0000000000)


Analysis of symmetry for initial positions (statically):
=====================================================================
 Subroutine PRICEL returns:
 Original cell was already a primitive cell.
 

 Routine SETGRP: Setting up the symmetry group for a 
 face centered cubic supercell.


 Subroutine GETGRP returns: Found 48 space group operations
 (whereof 12 operations were pure point group operations)
 out of a pool of 48 trial point group operations.


The static configuration has the point symmetry D_3d.
 The point group associated with its full space group is O_h .


Analysis of symmetry for dynamics (positions and initial velocities):
=====================================================================
 Subroutine PRICEL returns:
 Original cell was already a primitive cell.
 

 Routine SETGRP: Setting up the symmetry group for a 
 face centered cubic supercell.


 Subroutine GETGRP returns: Found 48 space group operations
 (whereof 12 operations were pure point group operations)
 out of a pool of 48 trial point group operations.


The dynamic configuration has the point symmetry D_3d.
 The point group associated with its full space group is O_h .


 Subroutine INISYM returns: Found 48 space group operations
 (whereof 12 operations are pure point group operations),
 and found     1 'primitive' translations

 
 
 KPOINTS: Automatic generation                    

Automatic generation of k-mesh.
Space group operators:
 irot       det(A)        alpha          n_x          n_y          n_z        tau_x        tau_y        tau_z
    1     1.000000     0.000000     1.000000     0.000000     0.000000     0.000000     0.000000     0.000000
    2    -1.000000     0.000000     1.000000     0.000000     0.000000     0.000000     0.000000     0.000000
    3     1.000000   120.000000    -0.577350    -0.577350    -0.577350     0.000000     0.000000     0.000000
    4    -1.000000   120.000000    -0.577350    -0.577350    -0.577350     0.000000     0.000000     0.000000
    5     1.000000   120.000000     0.577350     0.577350     0.577350     0.000000     0.000000     0.000000
    6    -1.000000   120.000000     0.577350     0.577350     0.577350     0.000000     0.000000     0.000000
    7     1.000000   180.000000     0.000000    -0.707107     0.707107     0.000000     0.000000     0.000000
    8    -1.000000   180.000000     0.000000    -0.707107     0.707107     0.000000     0.000000     0.000000
    9     1.000000   180.000000     0.707107    -0.707107     0.000000     0.000000     0.000000     0.000000
   10    -1.000000   180.000000     0.707107    -0.707107     0.000000     0.000000     0.000000     0.000000
   11     1.000000   180.000000    -0.707107     0.000000     0.707107     0.000000     0.000000     0.000000
   12    -1.000000   180.000000    -0.707107     0.000000     0.707107     0.000000     0.000000     0.000000
   13     1.000000    90.000000    -0.000000    -0.000000    -1.000000     0.500000     0.000000    -0.000000
   14    -1.000000    90.000000    -0.000000    -0.000000    -1.000000     0.500000     0.000000    -0.000000
   15     1.000000   180.000000    -0.000000     0.707107     0.707107     0.500000     0.000000    -0.000000
   16    -1.000000   180.000000    -0.000000     0.707107     0.707107     0.500000     0.000000    -0.000000
   17     1.000000    90.000000    -0.000000     1.000000     0.000000     0.500000     0.000000    -0.000000
   18    -1.000000    90.000000    -0.000000     1.000000     0.000000     0.500000     0.000000    -0.000000
   19     1.000000   180.000000     0.000000    -0.000000    -1.000000    -0.000000     0.000000     0.500000
   20    -1.000000   180.000000     0.000000    -0.000000    -1.000000    -0.000000     0.000000     0.500000
   21     1.000000   120.000000    -0.577350     0.577350     0.577350    -0.000000     0.000000     0.500000
   22    -1.000000   120.000000    -0.577350     0.577350     0.577350    -0.000000     0.000000     0.500000
   23     1.000000   120.000000    -0.577350     0.577350    -0.577350    -0.000000     0.000000     0.500000
   24    -1.000000   120.000000    -0.577350     0.577350    -0.577350    -0.000000     0.000000     0.500000
   25     1.000000    90.000000     0.000000     0.000000     1.000000     0.000000     0.500000    -0.000000
   26    -1.000000    90.000000     0.000000     0.000000     1.000000     0.000000     0.500000    -0.000000
   27     1.000000    90.000000    -1.000000     0.000000    -0.000000     0.000000     0.500000    -0.000000
   28    -1.000000    90.000000    -1.000000     0.000000    -0.000000     0.000000     0.500000    -0.000000
   29     1.000000   180.000000     0.707107     0.000000     0.707107     0.000000     0.500000    -0.000000
   30    -1.000000   180.000000     0.707107     0.000000     0.707107     0.000000     0.500000    -0.000000
   31     1.000000   120.000000     0.577350    -0.577350     0.577350     0.500000     0.000000    -0.000000
   32    -1.000000   120.000000     0.577350    -0.577350     0.577350     0.500000     0.000000    -0.000000
   33     1.000000   120.000000    -0.577350    -0.577350     0.577350     0.500000     0.000000    -0.000000
   34    -1.000000   120.000000    -0.577350    -0.577350     0.577350     0.500000     0.000000    -0.000000
   35     1.000000   180.000000     1.000000     0.000000     0.000000     0.500000     0.000000    -0.000000
   36    -1.000000   180.000000     1.000000     0.000000     0.000000     0.500000     0.000000    -0.000000
   37     1.000000    90.000000     0.000000    -1.000000     0.000000    -0.000000     0.000000     0.500000
   38    -1.000000    90.000000     0.000000    -1.000000     0.000000    -0.000000     0.000000     0.500000
   39     1.000000   180.000000     0.707107     0.707107    -0.000000    -0.000000     0.000000     0.500000
   40    -1.000000   180.000000     0.707107     0.707107    -0.000000    -0.000000     0.000000     0.500000
   41     1.000000    90.000000     1.000000     0.000000     0.000000    -0.000000     0.000000     0.500000
   42    -1.000000    90.000000     1.000000     0.000000     0.000000    -0.000000     0.000000     0.500000
   43     1.000000   120.000000     0.577350    -0.577350    -0.577350     0.000000     0.500000    -0.000000
   44    -1.000000   120.000000     0.577350    -0.577350    -0.577350     0.000000     0.500000    -0.000000
   45     1.000000   180.000000    -0.000000    -1.000000    -0.000000     0.000000     0.500000    -0.000000
   46    -1.000000   180.000000    -0.000000    -1.000000    -0.000000     0.000000     0.500000    -0.000000
   47     1.000000   120.000000     0.577350     0.577350    -0.577350     0.000000     0.500000    -0.000000
   48    -1.000000   120.000000     0.577350     0.577350    -0.577350     0.000000     0.500000    -0.000000
 
 Subroutine IBZKPT returns following result:
 ===========================================
 
 Found     29 irreducible k-points:
 
 Following reciprocal coordinates:
            Coordinates               Weight
  0.000000  0.000000  0.000000      1.000000
  0.125000  0.000000  0.000000      8.000000
  0.250000  0.000000  0.000000      8.000000
  0.375000 -0.000000  0.000000      8.000000
  0.500000  0.000000  0.000000      4.000000
  0.125000  0.125000  0.000000      6.000000
  0.250000  0.125000  0.000000     24.000000
  0.375000  0.125000  0.000000     24.000000
  0.500000  0.125000  0.000000     24.000000
 -0.375000  0.125000 -0.000000     24.000000
 -0.250000  0.125000 -0.000000     24.000000
 -0.125000  0.125000  0.000000     12.000000
  0.250000  0.250000  0.000000      6.000000
  0.375000  0.250000  0.000000     24.000000
  0.500000  0.250000  0.000000     24.000000
 -0.375000  0.250000 -0.000000     24.000000
 -0.250000  0.250000  0.000000     12.000000
  0.375000  0.375000  0.000000      6.000000
  0.500000  0.375000  0.000000     24.000000
 -0.375000  0.375000 -0.000000     12.000000
  0.500000  0.500000  0.000000      3.000000
  0.375000  0.250000  0.125000     24.000000
  0.500000  0.250000  0.125000     48.000000
 -0.375000  0.250000  0.125000     24.000000
  0.500000  0.375000  0.125000     24.000000
 -0.375000  0.375000  0.125000     48.000000
 -0.250000  0.375000  0.125000     24.000000
 -0.375000  0.500000  0.125000     12.000000
 -0.250000  0.500000  0.250000      6.000000
 
 Following cartesian coordinates:
            Coordinates               Weight
  0.000000  0.000000  0.000000      1.000000
 -0.125000  0.125000  0.125000      8.000000
 -0.250000  0.250000  0.250000      8.000000
 -0.375000  0.375000  0.375000      8.000000
 -0.500000  0.500000  0.500000      4.000000
  0.000000 -0.000000  0.250000      6.000000
 -0.125000  0.125000  0.375000     24.000000
 -0.250000  0.250000  0.500000     24.000000
 -0.375000  0.375000  0.625000     24.000000
  0.500000 -0.500000 -0.250000     24.000000
  0.375000 -0.375000 -0.125000     24.000000
  0.250000 -0.250000  0.000000     12.000000
  0.000000 -0.000000  0.500000      6.000000
 -0.125000  0.125000  0.625000     24.000000
 -0.250000  0.250000  0.750000     24.000000
  0.625000 -0.625000 -0.125000     24.000000
  0.500000 -0.500000  0.000000     12.000000
  0.000000  0.000000  0.750000      6.000000
 -0.125000  0.125000  0.875000     24.000000
  0.750000 -0.750000 -0.000000     12.000000
  0.000000 -0.000000  1.000000      3.000000
 -0.000000  0.250000  0.500000     24.000000
 -0.125000  0.375000  0.625000     48.000000
  0.750000 -0.500000 -0.250000     24.000000
  0.000000  0.250000  0.750000     24.000000
  0.875000 -0.625000 -0.125000     48.000000
  0.750000 -0.500000  0.000000     24.000000
  1.000000 -0.750000 -0.000000     12.000000
  1.000000 -0.500000 -0.000000      6.000000
 


--------------------------------------------------------------------------------------------------------




 Dimension of arrays:
   k-points           NKPTS =     29   k-points in BZ     NKDIM =     29   number of bands    NBANDS=      8
   number of dos      NEDOS =    301   number of ions     NIONS =      2
   non local maximal  LDIM  =      4   non local SUM 2l+1 LMDIM =      8
   total plane-waves  NPLWV =   8000
   max r-space proj   IRMAX =   1488   max aug-charges    IRDMAX=   6993
   dimension x,y,z NGX =    20 NGY =   20 NGZ =   20
   dimension x,y,z NGXF=    40 NGYF=   40 NGZF=   40
   support grid    NGXF=    40 NGYF=   40 NGZF=   40
   ions per type =               2
   NGX,Y,Z   is equivalent  to a cutoff of   8.71,  8.71,  8.71 a.u.
   NGXF,Y,Z  is equivalent  to a cutoff of  17.42, 17.42, 17.42 a.u.

 SYSTEM =  unknown system                          
 POSCAR =  Si                                      

 Startparameter for this run:
   NWRITE =      2    write-flag & timer
   PREC   = normal    normal or accurate (medium, high low for compatibility)
   ISTART =      0    job   : 0-new  1-cont  2-samecut
   ICHARG =      2    charge: 1-file 2-atom 10-const
   ISPIN  =      1    spin polarized calculation?
   LNONCOLLINEAR =      F non collinear calculations
   LSORBIT =      F    spin-orbit coupling
   INIWAV =      1    electr: 0-lowe 1-rand  2-diag
   LASPH  =      F    aspherical Exc in radial PAW
   METAGGA=      F    non-selfconsistent MetaGGA calc.

 Electronic Relaxation 1
   ENCUT  =  450.0 eV  33.07 Ry    5.75 a.u.   6.60  6.60  6.60*2*pi/ulx,y,z
   ENINI  =  450.0     initial cutoff
   ENAUG  =  322.1 eV  augmentation charge cutoff
   NELM   =     60;   NELMIN=  3; NELMDL=  0     # of ELM steps 
   EDIFF  = 0.1E-03   stopping-criterion for ELM
   LREAL  =      T    real-space projection
   NLSPLINE    = F    spline interpolate recip. space projectors
   LCOMPAT=      F    compatible to vasp.4.4
   GGA_COMPAT  = T    GGA compatible to vasp.4.4-vasp.4.6
   LMAXPAW     = -100 max onsite density
   LMAXMIX     =    2 max onsite mixed and CHGCAR
   VOSKOWN=      0    Vosko Wilk Nusair interpolation
   ROPT   =   -0.00050
 Ionic relaxation
   EDIFFG = -.5E-01   stopping-criterion for IOM
   NSW    =      0    number of steps for IOM
   NBLOCK =      1;   KBLOCK =      1    inner block; outer block 
   IBRION =     -1    ionic relax: 0-MD 1-quasi-New 2-CG
   NFREE  =      2    steps in history (QN), initial steepest desc. (CG)
   ISIF   =      0    stress and relaxation
   IWAVPR =     10    prediction:  0-non 1-charg 2-wave 3-comb
   ISYM   =      2    0-nonsym 1-usesym 2-fastsym
   LCORR  =      T    Harris-Foulkes like correction to forces

   POTIM  = 0.5000    time-step for ionic-motion
   TEIN   =    0.0    initial temperature
   TEBEG  =    0.0;   TEEND  =   0.0 temperature during run
   SMASS  =  -3.00    Nose mass-parameter (am)
   estimated Nose-frequenzy (Omega)   =  0.10E-29 period in steps =****** mass=  -0.333E-27a.u.
   SCALEE = 1.0000    scale energy and forces
   NPACO  =    256;   APACO  = 16.0  distance and # of slots for P.C.
   PSTRESS=    0.0 pullay stress

  Mass of Ions in am
   POMASS =  28.09
  Ionic Valenz
   ZVAL   =   4.00
  Atomic Wigner-Seitz radii
   RWIGS  =  -1.00
  virtual crystal weights 
   VCA    =   1.00
   NELECT =       8.0000    total number of electrons
   NUPDOWN=      -1.0000    fix difference up-down

 DOS related values:
   EMIN   =  10.00;   EMAX   =-10.00  energy-range for DOS
   EFERMI =   0.00
   ISMEAR =     1;   SIGMA  =   0.20  broadening in eV -4-tet -1-fermi 0-gaus

 Electronic relaxation 2 (details)
   IALGO  =     68    algorithm
   LDIAG  =      T    sub-space diagonalisation (order eigenvalues)
   LSUBROT=      F    optimize rotation matrix (better conditioning)
   TURBO    =      0    0=normal 1=particle mesh
   IRESTART =      0    0=no restart 2=restart with 2 vectors
   NREBOOT  =      0    no. of reboots
   NMIN     =      0    reboot dimension
   EREF     =   0.00    reference energy to select bands
   IMIX   =      4    mixing-type and parameters
     AMIX     =   0.40;   BMIX     =  1.00
     AMIX_MAG =   1.60;   BMIX_MAG =  1.00
     AMIN     =   0.10
     WC   =   100.;   INIMIX=   1;  MIXPRE=   1;  MAXMIX= -45

 Intra band minimization:
   WEIMIN = 0.0000     energy-eigenvalue tresh-hold
   EBREAK =  0.31E-05  absolut break condition
   DEPER  =   0.30     relativ break condition  

   TIME   =   0.40     timestep for ELM

  volume/ion in A,a.u.               =      19.68       132.83
  Fermi-wavevector in a.u.,A,eV,Ry     =   0.962493  1.818849 12.604348  0.926393
  Thomas-Fermi vector in A             =   2.091957
 
 Write flags
   LWAVE        =      F    write WAVECAR
   LDOWNSAMPLE  =      F    k-point downsampling of WAVECAR
   LCHARG       =      F    write CHGCAR
   LVTOT        =      F    write LOCPOT, total local potential
   LVHAR        =      F    write LOCPOT, Hartree potential only
   LELF         =      F    write electronic localiz. function (ELF)
   LORBIT       =      0    0 simple, 1 ext, 2 COOP (PROOUT), +10 PAW based schemes


 Dipole corrections
   LMONO  =      F    monopole corrections only (constant potential shift)
   LDIPOL =      F    correct potential (dipole corrections)
   IDIPOL =      0    1-x, 2-y, 3-z, 4-all directions 
   EPSILON=  1.0000000 bulk dielectric constant

 Exchange correlation treatment:
   GGA     =    --    GGA type
   LEXCH   =     8    internal setting for exchange type
   VOSKOWN=      0    Vosko Wilk Nusair interpolation
   LHFCALC =     F    Hartree Fock is set to
   LHFONE  =     F    Hartree Fock one center treatment
   AEXX    =    0.0000 exact exchange contribution

 Linear response parameters
   LEPSILON=     F    determine dielectric tensor
   LRPA    =     F    only Hartree local field effects (RPA)
   LNABLA  =     F    use nabla operator in PAW spheres
   LVEL    =     F    velocity operator in full k-point grid
   LINTERFAST=   F  fast interpolation
   KINTER  =     0    interpolate to denser k-point grid
   CSHIFT  =0.1000    complex shift for real part using Kramers Kronig
   OMEGAMAX=  -1.0    maximum frequency
   DEG_THRESHOLD= 0.2000000E-02 threshold for treating states as degnerate
   RTIME   =   -0.100 relaxation time in fs
  (WPLASMAI=    0.000 imaginary part of plasma frequency in eV, 0.658/RTIME)
   DFIELD  = 0.0000000 0.0000000 0.0000000 field for delta impulse in time
 
 Orbital magnetization related:
   ORBITALMAG=     F  switch on orbital magnetization
   LCHIMAG   =     F  perturbation theory with respect to B field
   DQ        =  0.001000  dq finite difference perturbation B field
   LLRAUG    =     F  two centre corrections for induced B field



--------------------------------------------------------------------------------------------------------


 Static calculation
 charge density and potential will be updated during run
 non-spin polarized calculation
 RMM-DIIS sequential band-by-band and
  variant of blocked Davidson during initial phase
 perform sub-space diagonalisation
    before iterative eigenvector-optimisation
 modified Broyden-mixing scheme, WC =      100.0
 initial mixing is a Kerker type mixing with AMIX =  0.4000 and BMIX =      1.0000
 Hartree-type preconditioning will be used
 using additional bands            4
 real space projection scheme for non local part
 use partial core corrections
 calculate Harris-corrections to forces 
   (improved forces if not selfconsistent)
 use gradient corrections 
 use of overlap-Matrix (Vanderbilt PP)
 Methfessel and Paxton  Order N= 1 SIGMA  =   0.20


--------------------------------------------------------------------------------------------------------


  energy-cutoff  :      450.00
  volume of cell :       39.37
      direct lattice vectors                 reciprocal lattice vectors
     0.000000000  2.700000000  2.700000000    -0.185185185  0.185185185  0.185185185
     2.700000000  0.000000000  2.700000000     0.185185185 -0.185185185  0.185185185
     2.700000000  2.700000000  0.000000000     0.185185185  0.185185185 -0.185185185

  length of vectors
     3.818376618  3.818376618  3.818376618     0.320750150  0.320750150  0.320750150


 
 k-points in units of 2pi/SCALE and weight: Automatic generation                    
   0.00000000  0.00000000  0.00000000       0.002
  -0.12500000  0.12500000  0.12500000       0.016
  -0.25000000  0.25000000  0.25000000       0.016
  -0.37500000  0.37500000  0.37500000       0.016
  -0.50000000  0.50000000  0.50000000       0.008
   0.00000000  0.00000000  0.25000000       0.012
  -0.12500000  0.12500000  0.37500000       0.047
  -0.25000000  0.25000000  0.50000000       0.047
  -0.37500000  0.37500000  0.62500000       0.047
   0.50000000 -0.50000000 -0.25000000       0.047
   0.37500000 -0.37500000 -0.12500000       0.047
   0.25000000 -0.25000000 -0.00000000       0.023
   0.00000000  0.00000000  0.50000000       0.012
  -0.12500000  0.12500000  0.62500000       0.047
  -0.25000000  0.25000000  0.75000000       0.047
   0.62500000 -0.62500000 -0.12500000       0.047
   0.50000000 -0.50000000 -0.00000000       0.023
   0.00000000  0.00000000  0.75000000       0.012
  -0.12500000  0.12500000  0.87500000       0.047
   0.75000000 -0.75000000 -0.00000000       0.023
   0.00000000  0.00000000  1.00000000       0.006
   0.00000000  0.25000000  0.50000000       0.047
  -0.12500000  0.37500000  0.62500000       0.094
   0.75000000 -0.50000000 -0.25000000       0.047
   0.00000000  0.25000000  0.75000000       0.047
   0.87500000 -0.62500000 -0.12500000       0.094
   0.75000000 -0.50000000  0.00000000       0.047
   1.00000000 -0.75000000 -0.00000000       0.023
   1.00000000 -0.50000000  0.00000000       0.012
 
 k-points in reciprocal lattice and weights: Automatic generation                    
   0.00000000  0.00000000  0.00000000       0.002
   0.12500000  0.00000000  0.00000000       0.016
   0.25000000  0.00000000  0.00000000       0.016
   0.37500000 -0.00000000  0.00000000       0.016
   0.50000000  0.00000000  0.00000000       0.008
   0.12500000  0.12500000  0.00000000       0.012
   0.25000000  0.12500000  0.00000000       0.047
   0.37500000  0.12500000  0.00000000       0.047
   0.50000000  0.12500000  0.00000000       0.047
  -0.37500000  0.12500000 -0.00000000       0.047
  -0.25000000  0.12500000 -0.00000000       0.047
  -0.12500000  0.12500000  0.00000000       0.023
   0.25000000  0.25000000  0.00000000       0.012
   0.37500000  0.25000000  0.00000000       0.047
   0.50000000  0.25000000  0.00000000       0.047
  -0.37500000  0.25000000 -0.00000000       0.047
  -0.25000000  0.25000000  0.00000000       0.023
   0.37500000  0.37500000  0.00000000       0.012
   0.50000000  0.37500000  0.00000000       0.047
  -0.37500000  0.37500000 -0.00000000       0.023
   0.50000000  0.50000000  0.00000000       0.006
   0.37500000  0.25000000  0.12500000       0.047
   0.50000000  0.25000000  0.12500000       0.094
  -0.37500000  0.25000000  0.12500000       0.047
   0.50000000  0.37500000  0.12500000       0.047
  -0.37500000  0.37500000  0.12500000       0.094
  -0.25000000  0.37500000  0.12500000       0.047
  -0.37500000  0.50000000  0.12500000       0.023
  -0.25000000  0.50000000  0.25000000       0.012
 
 position of ions in fractional coordinates (direct lattice) 
   0.87500000  0.87500000  0.87500000
   0.12500000  0.12500000  0.12500000
 
 position of ions in cartesian coordinates  (Angst):
   4.72500000  4.72500000  4.72500000
   0.67500000  0.67500000  0.67500000
 


--------------------------------------------------------------------------------------------------------


 k-point  1 :   0.0000 0.0000 0.0000  plane waves:     869
 k-point  2 :   0.1250 0.0000 0.0000  plane waves:     875
 k-point  3 :   0.2500 0.0000 0.0000  plane waves:     860
 k-point  4 :   0.3750-0.0000 0.0000  plane waves:     857
 k-point  5 :   0.5000 0.0000 0.0000  plane waves:     862
 k-point  6 :   0.1250 0.1250 0.0000  plane waves:     877
 k-point  7 :   0.2500 0.1250 0.0000  plane waves:     862
 k-point  8 :   0.3750 0.1250 0.0000  plane waves:     852
 k-point  9 :   0.5000 0.1250 0.0000  plane waves:     852
 k-point 10 :  -0.3750 0.1250-0.0000  plane waves:     853
 k-point 11 :  -0.2500 0.1250-0.0000  plane waves:     853
 k-point 12 :  -0.1250 0.1250 0.0000  plane waves:     871
 k-point 13 :   0.2500 0.2500 0.0000  plane waves:     849
 k-point 14 :   0.3750 0.2500 0.0000  plane waves:     853
 k-point 15 :   0.5000 0.2500 0.0000  plane waves:     855
 k-point 16 :  -0.3750 0.2500-0.0000  plane waves:     850
 k-point 17 :  -0.2500 0.2500 0.0000  plane waves:     847
 k-point 18 :   0.3750 0.3750 0.0000  plane waves:     850
 k-point 19 :   0.5000 0.3750 0.0000  plane waves:     848
 k-point 20 :  -0.3750 0.3750-0.0000  plane waves:     858
 k-point 21 :   0.5000 0.5000 0.0000  plane waves:     846
 k-point 22 :   0.3750 0.2500 0.1250  plane waves:     849
 k-point 23 :   0.5000 0.2500 0.1250  plane waves:     854
 k-point 24 :  -0.3750 0.2500 0.1250  plane waves:     848
 k-point 25 :   0.5000 0.3750 0.1250  plane waves:     856
 k-point 26 :  -0.3750 0.3750 0.1250  plane waves:     854
 k-point 27 :  -0.2500 0.3750 0.1250  plane waves:     850
 k-point 28 :  -0.3750 0.5000 0.1250  plane waves:     852
 k-point 29 :  -0.2500 0.5000 0.2500  plane waves:     848

 maximum and minimum number of plane-waves per node :       877      846

 maximum number of plane-waves:       877
 maximum index in each direction: 
   IXMAX=    6   IYMAX=    6   IZMAX=    6
   IXMIN=   -7   IYMIN=   -7   IZMIN=   -6


 serial   3D FFT for wavefunctions
